 *******************************************************************************
 ** Site#: 6986         For non-commercial use only    Version 20.079L 64BITS **
 *******************************************************************************
 ** Cite this program as: MOPAC2016, Version: 20.079L, James J. P. Stewart,   **
 ** Stewart Computational Chemistry, web: HTTP://OpenMOPAC.net. Days left: 347**
 *******************************************************************************
 **                                                                           **
 **                                MOPAC2016                                  **
 **                                                                           **
 *******************************************************************************

                              PM7 CALCULATION RESULTS

 *******************************************************************************
 *  CALCULATION DONE:                                Tue Apr  7 19:16:44 2020  *
 *  PM7        - The PM7 Hamiltonian to be used
 *  SINGLET    - SPIN STATE DEFINED AS A SINGLET
 *
 *
 *
 *                 CHARGE ON SYSTEM = 0
 *
 *
 *
 *  XYZ        - CARTESIAN COORDINATE SYSTEM TO BE USED
 *  T=         - A TIME OF 172800.0 SECONDS REQUESTED
 *  DUMP=N     - RESTART FILE WRITTEN EVERY  7200.000 SECONDS
 *  AUX        - OUTPUT AUXILIARY INFORMATION
 *  BONDS      - FINAL BOND-ORDER MATRIX TO BE PRINTED
 *******************************************************************************
PM7 XYZ    CHARGE=0 Singlet  BONDS AUX

 Mopac file generated by Gabedit
   ATOM   CHEMICAL          X               Y               Z
  NUMBER   SYMBOL      (ANGSTROMS)     (ANGSTROMS)     (ANGSTROMS)
 
     1       C          0.35000000  *  -0.15500000  *  -0.26000000  *
     2       C         -0.14100000  *   0.95900000  *  -1.14100000  *
     3       C          0.42300000  *   2.11700000  *  -0.81100000  *
     4       C          1.38200000  *   1.96300000  *   0.34700000  *
     5       C          1.66700000  *   0.42900000  *   0.33200000  *
     6       C          2.64500000  *   2.81700000  *   0.25300000  *
     7       H          0.84300000  *   2.21900000  *   1.27000000  *
     8       C          2.90700000  *   0.11700000  *  -0.54800000  *
     9       H          1.85400000  *   0.05200000  *   1.34400000  *
    10       O          4.02700000  *   0.91100000  *  -0.12600000  *
    11       C          3.85400000  *   2.25800000  *   0.03000000  *
    12       H          4.78600000  *   2.82700000  *   0.00400000  *
    13       O         -0.58500000  *  -0.33500000  *   0.82500000  *
    14       C          0.38700000  *  -1.53200000  *  -0.85700000  *
    15       C         -0.34300000  *  -2.39300000  *  -0.14000000  *
    16       C         -0.97200000  *  -1.63900000  *   0.97100000  *
    17       O         -1.70500000  *  -2.04100000  *   1.86100000  *
    18       C         -0.47800000  *  -3.88800000  *  -0.40200000  *
    19       C         -1.62200000  *  -4.58200000  *   0.36300000  *
    20       H         -1.43000000  *  -4.59000000  *   1.44300000  *
    21       H         -1.72400000  *  -5.62400000  *   0.03500000  *
    22       H         -2.57900000  *  -4.07800000  *   0.17600000  *
    23       O          0.75500000  *  -4.53000000  *  -0.08500000  *
    24       H         -0.68300000  *  -4.01000000  *  -1.47500000  *
    25       C          2.50100000  *   4.28500000  *   0.49800000  *
    26       O          1.42600000  *   4.83100000  *   0.69900000  *
    27       O          3.69500000  *   4.94900000  *   0.50000000  *
    28       C          3.72200000  *   6.35900000  *   0.81800000  *
    29       H          3.12700000  *   6.93600000  *   0.09600000  *
    30       H          4.75500000  *   6.73400000  *   0.79000000  *
    31       H          3.32000000  *   6.53500000  *   1.82600000  *
    32       O          3.32900000  *  -1.23700000  *  -0.41200000  *
    33       H          4.19900000  *  -1.29900000  *  -0.89300000  *
    34       H          2.68300000  *   0.33900000  *  -1.60100000  *
    35       H          1.46100000  *  -4.06800000  *  -0.61200000  *
    36       H          0.24200000  *   3.07900000  *  -1.29000000  *
    37       H         -0.86200000  *   0.78600000  *  -1.93900000  *
    38       H          0.97900000  *  -1.76300000  *  -1.73900000  *
 


          CARTESIAN COORDINATES 

    NO.       ATOM           X           Y           Z

     1         C          0.3500     -0.1550     -0.2600
     2         C         -0.1410      0.9590     -1.1410
     3         C          0.4230      2.1170     -0.8110
     4         C          1.3820      1.9630      0.3470
     5         C          1.6670      0.4290      0.3320
     6         C          2.6450      2.8170      0.2530
     7         H          0.8430      2.2190      1.2700
     8         C          2.9070      0.1170     -0.5480
     9         H          1.8540      0.0520      1.3440
    10         O          4.0270      0.9110     -0.1260
    11         C          3.8540      2.2580      0.0300
    12         H          4.7860      2.8270      0.0040
    13         O         -0.5850     -0.3350      0.8250
    14         C          0.3870     -1.5320     -0.8570
    15         C         -0.3430     -2.3930     -0.1400
    16         C         -0.9720     -1.6390      0.9710
    17         O         -1.7050     -2.0410      1.8610
    18         C         -0.4780     -3.8880     -0.4020
    19         C         -1.6220     -4.5820      0.3630
    20         H         -1.4300     -4.5900      1.4430
    21         H         -1.7240     -5.6240      0.0350
    22         H         -2.5790     -4.0780      0.1760
    23         O          0.7550     -4.5300     -0.0850
    24         H         -0.6830     -4.0100     -1.4750
    25         C          2.5010      4.2850      0.4980
    26         O          1.4260      4.8310      0.6990
    27         O          3.6950      4.9490      0.5000
    28         C          3.7220      6.3590      0.8180
    29         H          3.1270      6.9360      0.0960
    30         H          4.7550      6.7340      0.7900
    31         H          3.3200      6.5350      1.8260
    32         O          3.3290     -1.2370     -0.4120
    33         H          4.1990     -1.2990     -0.8930
    34         H          2.6830      0.3390     -1.6010
    35         H          1.4610     -4.0680     -0.6120
    36         H          0.2420      3.0790     -1.2900
    37         H         -0.8620      0.7860     -1.9390
    38         H          0.9790     -1.7630     -1.7390

 General Reference for PM7:
 "Optimization of Parameters for Semiempirical Methods VI: More Modifications to the 
 NDDO Approximations and Re-optimization of Parameters", J. J. P. Stewart, J. Mol. Mod., 1:32, 19 (2013)
 http://www.springerlink.com/openurl.asp?genre=article&id=doi:10.1007/s00894-012-1667-x

           Empirical Formula: C15 H16 O7  =    38 atoms



      MOLECULAR POINT GROUP   :   C1  


 SINGLET STATE CALCULATION


      RHF CALCULATION, NO. OF DOUBLY OCCUPIED LEVELS = 59


          Geometry optimization using L-BFGS
 CYCLE:     1 TIME:   0.031 TIME LEFT:  2.00D  GRAD.:   143.041 HEAT: -227.5231
 CYCLE:     2 TIME:   0.008 TIME LEFT:  2.00D  GRAD.:   139.767 HEAT: -227.7253
 CYCLE:     3 TIME:   0.016 TIME LEFT:  2.00D  GRAD.:    55.101 HEAT: -233.7495
 CYCLE:     4 TIME:   0.016 TIME LEFT:  2.00D  GRAD.:   139.839 HEAT: -227.7260
 CYCLE:     5 TIME:   0.016 TIME LEFT:  2.00D  GRAD.:    55.213 HEAT: -233.7508
 CYCLE:     6 TIME:   0.016 TIME LEFT:  2.00D  GRAD.:    43.453 HEAT: -234.8429
 CYCLE:     7 TIME:   0.008 TIME LEFT:  2.00D  GRAD.:    44.071 HEAT: -236.7601
 CYCLE:     8 TIME:   0.008 TIME LEFT:  2.00D  GRAD.:   108.216 HEAT: -236.8741
 CYCLE:     9 TIME:   0.016 TIME LEFT:  2.00D  GRAD.:    33.200 HEAT: -238.6870
 CYCLE:    10 TIME:   0.008 TIME LEFT:  2.00D  GRAD.:    23.416 HEAT: -239.1359
 CYCLE:    11 TIME:   0.016 TIME LEFT:  2.00D  GRAD.:    28.014 HEAT: -239.6929
 CYCLE:    12 TIME:   0.008 TIME LEFT:  2.00D  GRAD.:    36.765 HEAT: -240.3183
 CYCLE:    13 TIME:   0.008 TIME LEFT:  2.00D  GRAD.:    37.659 HEAT: -240.6736
 CYCLE:    14 TIME:   0.016 TIME LEFT:  2.00D  GRAD.:    16.282 HEAT: -241.0236
 CYCLE:    15 TIME:   0.008 TIME LEFT:  2.00D  GRAD.:    16.190 HEAT: -241.2281
 CYCLE:    16 TIME:   0.008 TIME LEFT:  2.00D  GRAD.:    17.892 HEAT: -241.4567
 CYCLE:    17 TIME:   0.016 TIME LEFT:  2.00D  GRAD.:    31.097 HEAT: -241.7639
 CYCLE:    18 TIME:   0.008 TIME LEFT:  2.00D  GRAD.:    16.347 HEAT: -242.0192
 CYCLE:    19 TIME:   0.008 TIME LEFT:  2.00D  GRAD.:     9.546 HEAT: -242.1405
 CYCLE:    20 TIME:   0.016 TIME LEFT:  2.00D  GRAD.:     9.654 HEAT: -242.2519
 CYCLE:    21 TIME:   0.008 TIME LEFT:  2.00D  GRAD.:    23.287 HEAT: -242.2834
 CYCLE:    22 TIME:   0.008 TIME LEFT:  2.00D  GRAD.:    10.045 HEAT: -242.3617
 CYCLE:    23 TIME:   0.008 TIME LEFT:  2.00D  GRAD.:     7.859 HEAT: -242.4221
 CYCLE:    24 TIME:   0.016 TIME LEFT:  2.00D  GRAD.:    10.577 HEAT: -242.4791
 CYCLE:    25 TIME:   0.008 TIME LEFT:  2.00D  GRAD.:    11.801 HEAT: -242.5869
 CYCLE:    26 TIME:   0.008 TIME LEFT:  2.00D  GRAD.:    28.900 HEAT: -242.6573
 CYCLE:    27 TIME:   0.016 TIME LEFT:  2.00D  GRAD.:     9.332 HEAT: -242.8215
 CYCLE:    28 TIME:   0.008 TIME LEFT:  2.00D  GRAD.:     6.714 HEAT: -242.8803
 CYCLE:    29 TIME:   0.008 TIME LEFT:  2.00D  GRAD.:     9.259 HEAT: -242.9520
 CYCLE:    30 TIME:   0.008 TIME LEFT:  2.00D  GRAD.:    15.261 HEAT: -242.9867
 CYCLE:    31 TIME:   0.008 TIME LEFT:  2.00D  GRAD.:     6.191 HEAT: -243.0329
 CYCLE:    32 TIME:   0.016 TIME LEFT:  2.00D  GRAD.:     5.028 HEAT: -243.0609
 CYCLE:    33 TIME:   0.008 TIME LEFT:  2.00D  GRAD.:     5.448 HEAT: -243.0834
 CYCLE:    34 TIME:   0.008 TIME LEFT:  2.00D  GRAD.:    12.622 HEAT: -243.1181
 CYCLE:    35 TIME:   0.016 TIME LEFT:  2.00D  GRAD.:     6.517 HEAT: -243.1582
 CYCLE:    36 TIME:   0.008 TIME LEFT:  2.00D  GRAD.:     4.810 HEAT: -243.1787
 CYCLE:    37 TIME:   0.008 TIME LEFT:  2.00D  GRAD.:     5.689 HEAT: -243.2150
 CYCLE:    38 TIME:   0.008 TIME LEFT:  2.00D  GRAD.:     8.327 HEAT: -243.2511
 CYCLE:    39 TIME:   0.016 TIME LEFT:  2.00D  GRAD.:     9.938 HEAT: -243.2809
 CYCLE:    40 TIME:   0.008 TIME LEFT:  2.00D  GRAD.:     5.812 HEAT: -243.3049
 CYCLE:    41 TIME:   0.016 TIME LEFT:  2.00D  GRAD.:     7.113 HEAT: -243.3383
 CYCLE:    42 TIME:   0.008 TIME LEFT:  2.00D  GRAD.:     7.274 HEAT: -243.3662
 CYCLE:    43 TIME:   0.016 TIME LEFT:  2.00D  GRAD.:    10.994 HEAT: -243.4214
 CYCLE:    44 TIME:   0.008 TIME LEFT:  2.00D  GRAD.:    15.447 HEAT: -243.4439
 CYCLE:    45 TIME:   0.016 TIME LEFT:  2.00D  GRAD.:     5.827 HEAT: -243.4891
 CYCLE:    46 TIME:   0.008 TIME LEFT:  2.00D  GRAD.:     4.861 HEAT: -243.5146
 CYCLE:    47 TIME:   0.008 TIME LEFT:  2.00D  GRAD.:     7.020 HEAT: -243.5648
 CYCLE:    48 TIME:   0.016 TIME LEFT:  2.00D  GRAD.:     8.681 HEAT: -243.6147
 CYCLE:    49 TIME:   0.008 TIME LEFT:  2.00D  GRAD.:    13.421 HEAT: -243.6543
 CYCLE:    50 TIME:   0.016 TIME LEFT:  2.00D  GRAD.:     7.376 HEAT: -243.7097
 CYCLE:    51 TIME:   0.008 TIME LEFT:  2.00D  GRAD.:     6.011 HEAT: -243.7551
 CYCLE:    52 TIME:   0.008 TIME LEFT:  2.00D  GRAD.:     9.066 HEAT: -243.7783
 CYCLE:    53 TIME:   0.016 TIME LEFT:  2.00D  GRAD.:     8.816 HEAT: -243.8241
 CYCLE:    54 TIME:   0.008 TIME LEFT:  2.00D  GRAD.:    11.489 HEAT: -243.8645
 CYCLE:    55 TIME:   0.008 TIME LEFT:  2.00D  GRAD.:     8.646 HEAT: -243.9192
 CYCLE:    56 TIME:   0.016 TIME LEFT:  2.00D  GRAD.:    10.100 HEAT: -243.9840
 CYCLE:    57 TIME:   0.008 TIME LEFT:  2.00D  GRAD.:    20.622 HEAT: -243.9700
 CYCLE:    58 TIME:   0.008 TIME LEFT:  2.00D  GRAD.:    10.187 HEAT: -244.1071
 CYCLE:    59 TIME:   0.016 TIME LEFT:  2.00D  GRAD.:     8.740 HEAT: -244.1562
 CYCLE:    60 TIME:   0.008 TIME LEFT:  2.00D  GRAD.:    11.950 HEAT: -244.2141
 CYCLE:    61 TIME:   0.016 TIME LEFT:  2.00D  GRAD.:     8.961 HEAT: -244.3036
 CYCLE:    62 TIME:   0.008 TIME LEFT:  2.00D  GRAD.:     9.151 HEAT: -244.4328
 CYCLE:    63 TIME:   0.008 TIME LEFT:  2.00D  GRAD.:    18.910 HEAT: -244.4659
 CYCLE:    64 TIME:   0.016 TIME LEFT:  2.00D  GRAD.:    23.880 HEAT: -244.5366
 CYCLE:    65 TIME:   0.008 TIME LEFT:  2.00D  GRAD.:     6.884 HEAT: -244.6580
 CYCLE:    66 TIME:   0.016 TIME LEFT:  2.00D  GRAD.:     7.530 HEAT: -244.6939
 CYCLE:    67 TIME:   0.008 TIME LEFT:  2.00D  GRAD.:     6.226 HEAT: -244.7431
 CYCLE:    68 TIME:   0.008 TIME LEFT:  2.00D  GRAD.:    10.422 HEAT: -244.7888
 CYCLE:    69 TIME:   0.016 TIME LEFT:  2.00D  GRAD.:     7.563 HEAT: -244.8278
 CYCLE:    70 TIME:   0.008 TIME LEFT:  2.00D  GRAD.:     6.457 HEAT: -244.8577
 CYCLE:    71 TIME:   0.008 TIME LEFT:  2.00D  GRAD.:     9.545 HEAT: -244.9101
 CYCLE:    72 TIME:   0.016 TIME LEFT:  2.00D  GRAD.:    12.848 HEAT: -244.9414
 CYCLE:    73 TIME:   0.008 TIME LEFT:  2.00D  GRAD.:     6.833 HEAT: -244.9798
 CYCLE:    74 TIME:   0.016 TIME LEFT:  2.00D  GRAD.:     5.993 HEAT: -245.0202
 CYCLE:    75 TIME:   0.008 TIME LEFT:  2.00D  GRAD.:     6.758 HEAT: -245.0579
 CYCLE:    76 TIME:   0.008 TIME LEFT:  2.00D  GRAD.:    10.314 HEAT: -245.1094
 CYCLE:    77 TIME:   0.016 TIME LEFT:  2.00D  GRAD.:    14.009 HEAT: -245.1594
 CYCLE:    78 TIME:   0.008 TIME LEFT:  2.00D  GRAD.:    14.148 HEAT: -245.1788
 CYCLE:    79 TIME:   0.008 TIME LEFT:  2.00D  GRAD.:     5.702 HEAT: -245.2180
 CYCLE:    80 TIME:   0.008 TIME LEFT:  2.00D  GRAD.:     5.187 HEAT: -245.2391
 CYCLE:    81 TIME:   0.016 TIME LEFT:  2.00D  GRAD.:     5.892 HEAT: -245.2657
 CYCLE:    82 TIME:   0.008 TIME LEFT:  2.00D  GRAD.:     6.225 HEAT: -245.2967
 CYCLE:    83 TIME:   0.008 TIME LEFT:  2.00D  GRAD.:    19.894 HEAT: -245.2694
 CYCLE:    84 TIME:   0.008 TIME LEFT:  2.00D  GRAD.:     3.524 HEAT: -245.3369
 CYCLE:    85 TIME:   0.016 TIME LEFT:  2.00D  GRAD.:     3.066 HEAT: -245.3427
 CYCLE:    86 TIME:   0.008 TIME LEFT:  2.00D  GRAD.:     4.326 HEAT: -245.3611
 CYCLE:    87 TIME:   0.008 TIME LEFT:  2.00D  GRAD.:     8.927 HEAT: -245.3695
 CYCLE:    88 TIME:   0.016 TIME LEFT:  2.00D  GRAD.:     3.312 HEAT: -245.3872
 CYCLE:    89 TIME:   0.008 TIME LEFT:  2.00D  GRAD.:     2.862 HEAT: -245.3943
 CYCLE:    90 TIME:   0.008 TIME LEFT:  2.00D  GRAD.:     3.091 HEAT: -245.4044
 CYCLE:    91 TIME:   0.008 TIME LEFT:  2.00D  GRAD.:     6.023 HEAT: -245.4196
 CYCLE:    92 TIME:   0.016 TIME LEFT:  2.00D  GRAD.:     6.570 HEAT: -245.4277
 CYCLE:    93 TIME:   0.008 TIME LEFT:  2.00D  GRAD.:     3.470 HEAT: -245.4364
 CYCLE:    94 TIME:   0.008 TIME LEFT:  2.00D  GRAD.:     2.378 HEAT: -245.4439
 CYCLE:    95 TIME:   0.008 TIME LEFT:  2.00D  GRAD.:     3.212 HEAT: -245.4519
 CYCLE:    96 TIME:   0.016 TIME LEFT:  2.00D  GRAD.:     6.178 HEAT: -245.4601
 CYCLE:    97 TIME:   0.008 TIME LEFT:  2.00D  GRAD.:     2.843 HEAT: -245.4700
 CYCLE:    98 TIME:   0.008 TIME LEFT:  2.00D  GRAD.:     2.393 HEAT: -245.4759
 CYCLE:    99 TIME:   0.016 TIME LEFT:  2.00D  GRAD.:     3.511 HEAT: -245.4866
 CYCLE:   100 TIME:   0.008 TIME LEFT:  2.00D  GRAD.:     6.457 HEAT: -245.4960
 CYCLE:   101 TIME:   0.016 TIME LEFT:  2.00D  GRAD.:     3.486 HEAT: -245.5078
 CYCLE:   102 TIME:   0.008 TIME LEFT:  2.00D  GRAD.:     3.140 HEAT: -245.5190
 CYCLE:   103 TIME:   0.008 TIME LEFT:  2.00D  GRAD.:     4.435 HEAT: -245.5281
 CYCLE:   104 TIME:   0.016 TIME LEFT:  2.00D  GRAD.:     4.361 HEAT: -245.5405
 CYCLE:   105 TIME:   0.008 TIME LEFT:  2.00D  GRAD.:     3.151 HEAT: -245.5533
 CYCLE:   106 TIME:   0.008 TIME LEFT:  2.00D  GRAD.:     3.669 HEAT: -245.5656
 CYCLE:   107 TIME:   0.008 TIME LEFT:  2.00D  GRAD.:     7.599 HEAT: -245.5742
 CYCLE:   108 TIME:   0.016 TIME LEFT:  2.00D  GRAD.:     4.308 HEAT: -245.5871
 CYCLE:   109 TIME:   0.008 TIME LEFT:  2.00D  GRAD.:     3.188 HEAT: -245.5996
 CYCLE:   110 TIME:   0.008 TIME LEFT:  2.00D  GRAD.:     3.847 HEAT: -245.6104
 CYCLE:   111 TIME:   0.016 TIME LEFT:  2.00D  GRAD.:     7.141 HEAT: -245.6187
 CYCLE:   112 TIME:   0.008 TIME LEFT:  2.00D  GRAD.:     3.885 HEAT: -245.6330
 CYCLE:   113 TIME:   0.008 TIME LEFT:  2.00D  GRAD.:     4.267 HEAT: -245.6467
 CYCLE:   114 TIME:   0.008 TIME LEFT:  2.00D  GRAD.:     5.747 HEAT: -245.6656
 CYCLE:   115 TIME:   0.016 TIME LEFT:  2.00D  GRAD.:    12.700 HEAT: -245.6795
 CYCLE:   116 TIME:   0.008 TIME LEFT:  2.00D  GRAD.:     4.790 HEAT: -245.7073
 CYCLE:   117 TIME:   0.008 TIME LEFT:  2.00D  GRAD.:     4.246 HEAT: -245.7222
 CYCLE:   118 TIME:   0.008 TIME LEFT:  2.00D  GRAD.:     5.604 HEAT: -245.7410
 CYCLE:   119 TIME:   0.016 TIME LEFT:  2.00D  GRAD.:     6.580 HEAT: -245.7735
 CYCLE:   120 TIME:   0.008 TIME LEFT:  2.00D  GRAD.:     7.382 HEAT: -245.8056
 CYCLE:   121 TIME:   0.008 TIME LEFT:  2.00D  GRAD.:     7.390 HEAT: -245.8329
 CYCLE:   122 TIME:   0.016 TIME LEFT:  2.00D  GRAD.:     6.773 HEAT: -245.8677
 CYCLE:   123 TIME:   0.008 TIME LEFT:  2.00D  GRAD.:    24.447 HEAT: -245.8244
 CYCLE:   124 TIME:   0.016 TIME LEFT:  2.00D  GRAD.:     9.842 HEAT: -245.9563
 CYCLE:   125 TIME:   0.008 TIME LEFT:  2.00D  GRAD.:    10.420 HEAT: -245.9696
 CYCLE:   126 TIME:   0.008 TIME LEFT:  2.00D  GRAD.:    22.563 HEAT: -245.9351
 CYCLE:   127 TIME:   0.016 TIME LEFT:  2.00D  GRAD.:     6.054 HEAT: -246.0306
 CYCLE:   128 TIME:   0.008 TIME LEFT:  2.00D  GRAD.:     7.314 HEAT: -246.0420
 CYCLE:   129 TIME:   0.008 TIME LEFT:  2.00D  GRAD.:     4.119 HEAT: -246.0766
 CYCLE:   130 TIME:   0.016 TIME LEFT:  2.00D  GRAD.:     9.464 HEAT: -246.1039
 CYCLE:   131 TIME:   0.008 TIME LEFT:  2.00D  GRAD.:    21.838 HEAT: -246.1229
 CYCLE:   132 TIME:   0.008 TIME LEFT:  2.00D  GRAD.:    10.542 HEAT: -246.2034
 CYCLE:   133 TIME:   0.016 TIME LEFT:  2.00D  GRAD.:     5.745 HEAT: -246.2438
 CYCLE:   134 TIME:   0.008 TIME LEFT:  2.00D  GRAD.:     7.470 HEAT: -246.2679
 CYCLE:   135 TIME:   0.008 TIME LEFT:  2.00D  GRAD.:    10.186 HEAT: -246.3129
 CYCLE:   136 TIME:   0.008 TIME LEFT:  2.00D  GRAD.:     9.347 HEAT: -246.3632
 CYCLE:   137 TIME:   0.016 TIME LEFT:  2.00D  GRAD.:     7.535 HEAT: -246.4200
 CYCLE:   138 TIME:   0.008 TIME LEFT:  2.00D  GRAD.:     7.092 HEAT: -246.4630
 CYCLE:   139 TIME:   0.008 TIME LEFT:  2.00D  GRAD.:    11.281 HEAT: -246.5282
 CYCLE:   140 TIME:   0.016 TIME LEFT:  2.00D  GRAD.:     8.702 HEAT: -246.5835
 CYCLE:   141 TIME:   0.008 TIME LEFT:  2.00D  GRAD.:     7.267 HEAT: -246.6223
 CYCLE:   142 TIME:   0.008 TIME LEFT:  2.00D  GRAD.:     6.950 HEAT: -246.6577
 CYCLE:   143 TIME:   0.016 TIME LEFT:  2.00D  GRAD.:     9.661 HEAT: -246.6931
 CYCLE:   144 TIME:   0.008 TIME LEFT:  2.00D  GRAD.:     7.934 HEAT: -246.7232
 CYCLE:   145 TIME:   0.008 TIME LEFT:  2.00D  GRAD.:    13.228 HEAT: -246.7404
 CYCLE:   146 TIME:   0.008 TIME LEFT:  2.00D  GRAD.:     6.351 HEAT: -246.7754
 CYCLE:   147 TIME:   0.016 TIME LEFT:  2.00D  GRAD.:     4.810 HEAT: -246.7955
 CYCLE:   148 TIME:   0.008 TIME LEFT:  2.00D  GRAD.:     4.809 HEAT: -246.8296
 CYCLE:   149 TIME:   0.008 TIME LEFT:  2.00D  GRAD.:    23.457 HEAT: -246.8073
 CYCLE:   150 TIME:   0.016 TIME LEFT:  2.00D  GRAD.:     6.228 HEAT: -246.8899
 CYCLE:   151 TIME:   0.008 TIME LEFT:  2.00D  GRAD.:     4.295 HEAT: -246.9022
 CYCLE:   152 TIME:   0.008 TIME LEFT:  2.00D  GRAD.:     5.309 HEAT: -246.9227
 CYCLE:   153 TIME:   0.016 TIME LEFT:  2.00D  GRAD.:     6.391 HEAT: -246.9478
 CYCLE:   154 TIME:   0.008 TIME LEFT:  2.00D  GRAD.:    10.355 HEAT: -246.9700
 CYCLE:   155 TIME:   0.008 TIME LEFT:  2.00D  GRAD.:     4.786 HEAT: -246.9973
 CYCLE:   156 TIME:   0.008 TIME LEFT:  2.00D  GRAD.:     4.429 HEAT: -247.0149
 CYCLE:   157 TIME:   0.016 TIME LEFT:  2.00D  GRAD.:     5.433 HEAT: -247.0305
 CYCLE:   158 TIME:   0.008 TIME LEFT:  2.00D  GRAD.:    12.036 HEAT: -247.0394
 CYCLE:   159 TIME:   0.016 TIME LEFT:  2.00D  GRAD.:     5.136 HEAT: -247.0644
 CYCLE:   160 TIME:   0.008 TIME LEFT:  2.00D  GRAD.:     4.821 HEAT: -247.0817
 CYCLE:   161 TIME:   0.008 TIME LEFT:  2.00D  GRAD.:     6.202 HEAT: -247.0998
 CYCLE:   162 TIME:   0.008 TIME LEFT:  2.00D  GRAD.:     7.866 HEAT: -247.1258
 CYCLE:   163 TIME:   0.016 TIME LEFT:  2.00D  GRAD.:     7.896 HEAT: -247.1522
 CYCLE:   164 TIME:   0.008 TIME LEFT:  2.00D  GRAD.:    14.335 HEAT: -247.1885
 CYCLE:   165 TIME:   0.008 TIME LEFT:  2.00D  GRAD.:     8.946 HEAT: -247.2402
 CYCLE:   166 TIME:   0.008 TIME LEFT:  2.00D  GRAD.:     6.028 HEAT: -247.2730
 CYCLE:   167 TIME:   0.016 TIME LEFT:  2.00D  GRAD.:     8.554 HEAT: -247.3046
 CYCLE:   168 TIME:   0.008 TIME LEFT:  2.00D  GRAD.:    11.867 HEAT: -247.3849
 CYCLE:   169 TIME:   0.008 TIME LEFT:  2.00D  GRAD.:    10.472 HEAT: -247.4693
 CYCLE:   170 TIME:   0.016 TIME LEFT:  2.00D  GRAD.:    14.715 HEAT: -247.4991
 CYCLE:   171 TIME:   0.008 TIME LEFT:  2.00D  GRAD.:    32.592 HEAT: -247.3233
 CYCLE:   172 TIME:   0.008 TIME LEFT:  2.00D  GRAD.:     8.545 HEAT: -247.6250
 CYCLE:   173 TIME:   0.016 TIME LEFT:  2.00D  GRAD.:     6.752 HEAT: -247.6585
 CYCLE:   174 TIME:   0.008 TIME LEFT:  2.00D  GRAD.:     6.820 HEAT: -247.6959
 CYCLE:   175 TIME:   0.008 TIME LEFT:  2.00D  GRAD.:     7.716 HEAT: -247.7831
 CYCLE:   176 TIME:   0.008 TIME LEFT:  2.00D  GRAD.:    27.258 HEAT: -247.7439
 CYCLE:   177 TIME:   0.016 TIME LEFT:  2.00D  GRAD.:     6.129 HEAT: -247.8482
 CYCLE:   178 TIME:   0.008 TIME LEFT:  2.00D  GRAD.:     4.560 HEAT: -247.8611
 CYCLE:   179 TIME:   0.008 TIME LEFT:  2.00D  GRAD.:     6.027 HEAT: -247.8904
 CYCLE:   180 TIME:   0.016 TIME LEFT:  2.00D  GRAD.:     9.064 HEAT: -247.9304
 CYCLE:   181 TIME:   0.008 TIME LEFT:  2.00D  GRAD.:     7.453 HEAT: -247.9628
 CYCLE:   182 TIME:   0.008 TIME LEFT:  2.00D  GRAD.:     4.946 HEAT: -247.9842
 CYCLE:   183 TIME:   0.016 TIME LEFT:  2.00D  GRAD.:     5.595 HEAT: -248.0149
 CYCLE:   184 TIME:   0.008 TIME LEFT:  2.00D  GRAD.:     6.573 HEAT: -248.0374
 CYCLE:   185 TIME:   0.008 TIME LEFT:  2.00D  GRAD.:     5.719 HEAT: -248.0682
 CYCLE:   186 TIME:   0.008 TIME LEFT:  2.00D  GRAD.:     9.227 HEAT: -248.0824
 CYCLE:   187 TIME:   0.016 TIME LEFT:  2.00D  GRAD.:     4.049 HEAT: -248.0979
 CYCLE:   188 TIME:   0.008 TIME LEFT:  2.00D  GRAD.:     3.111 HEAT: -248.1056
 CYCLE:   189 TIME:   0.008 TIME LEFT:  2.00D  GRAD.:     4.054 HEAT: -248.1165
 CYCLE:   190 TIME:   0.008 TIME LEFT:  2.00D  GRAD.:     5.817 HEAT: -248.1292
 CYCLE:   191 TIME:   0.016 TIME LEFT:  2.00D  GRAD.:     5.514 HEAT: -248.1443
 CYCLE:   192 TIME:   0.008 TIME LEFT:  2.00D  GRAD.:     3.515 HEAT: -248.1567
 CYCLE:   193 TIME:   0.008 TIME LEFT:  2.00D  GRAD.:     4.339 HEAT: -248.1703
 CYCLE:   194 TIME:   0.008 TIME LEFT:  2.00D  GRAD.:     5.211 HEAT: -248.1814
 CYCLE:   195 TIME:   0.008 TIME LEFT:  2.00D  GRAD.:     4.128 HEAT: -248.1976
 CYCLE:   196 TIME:   0.016 TIME LEFT:  2.00D  GRAD.:     6.701 HEAT: -248.2112
 CYCLE:   197 TIME:   0.008 TIME LEFT:  2.00D  GRAD.:     3.262 HEAT: -248.2261
 CYCLE:   198 TIME:   0.008 TIME LEFT:  2.00D  GRAD.:     3.293 HEAT: -248.2332
 CYCLE:   199 TIME:   0.016 TIME LEFT:  2.00D  GRAD.:     5.318 HEAT: -248.2439
 CYCLE:   200 TIME:   0.008 TIME LEFT:  2.00D  GRAD.:     3.316 HEAT: -248.2540
 CYCLE:   201 TIME:   0.008 TIME LEFT:  2.00D  GRAD.:     2.424 HEAT: -248.2599
 CYCLE:   202 TIME:   0.008 TIME LEFT:  2.00D  GRAD.:     2.622 HEAT: -248.2663
 CYCLE:   203 TIME:   0.008 TIME LEFT:  2.00D  GRAD.:     3.201 HEAT: -248.2700
 CYCLE:   204 TIME:   0.016 TIME LEFT:  2.00D  GRAD.:     1.907 HEAT: -248.2732
 CYCLE:   205 TIME:   0.008 TIME LEFT:  2.00D  GRAD.:     1.691 HEAT: -248.2763
 CYCLE:   206 TIME:   0.008 TIME LEFT:  2.00D  GRAD.:     2.737 HEAT: -248.2784
 CYCLE:   207 TIME:   0.008 TIME LEFT:  2.00D  GRAD.:     1.731 HEAT: -248.2812
 CYCLE:   208 TIME:   0.016 TIME LEFT:  2.00D  GRAD.:     1.917 HEAT: -248.2841
 CYCLE:   209 TIME:   0.008 TIME LEFT:  2.00D  GRAD.:     2.608 HEAT: -248.2860
 CYCLE:   210 TIME:   0.016 TIME LEFT:  2.00D  GRAD.:     1.759 HEAT: -248.2879
 CYCLE:   211 TIME:   0.008 TIME LEFT:  2.00D  GRAD.:     1.363 HEAT: -248.2909
 CYCLE:   212 TIME:   0.008 TIME LEFT:  2.00D  GRAD.:     1.942 HEAT: -248.2926
 CYCLE:   213 TIME:   0.016 TIME LEFT:  2.00D  GRAD.:     1.494 HEAT: -248.2948
 CYCLE:   214 TIME:   0.008 TIME LEFT:  2.00D  GRAD.:     1.702 HEAT: -248.2972
 CYCLE:   215 TIME:   0.008 TIME LEFT:  2.00D  GRAD.:     2.921 HEAT: -248.2993
 CYCLE:   216 TIME:   0.008 TIME LEFT:  2.00D  GRAD.:     1.684 HEAT: -248.3018
 CYCLE:   217 TIME:   0.016 TIME LEFT:  2.00D  GRAD.:     1.591 HEAT: -248.3045
 CYCLE:   218 TIME:   0.008 TIME LEFT:  2.00D  GRAD.:     1.783 HEAT: -248.3074
 CYCLE:   219 TIME:   0.008 TIME LEFT:  2.00D  GRAD.:     3.509 HEAT: -248.3110
 CYCLE:   220 TIME:   0.008 TIME LEFT:  2.00D  GRAD.:     1.578 HEAT: -248.3150
 CYCLE:   221 TIME:   0.016 TIME LEFT:  2.00D  GRAD.:     1.252 HEAT: -248.3167
 CYCLE:   222 TIME:   0.008 TIME LEFT:  2.00D  GRAD.:     2.570 HEAT: -248.3187
 CYCLE:   223 TIME:   0.008 TIME LEFT:  2.00D  GRAD.:     1.777 HEAT: -248.3206
 CYCLE:   224 TIME:   0.008 TIME LEFT:  2.00D  GRAD.:     1.617 HEAT: -248.3227
 CYCLE:   225 TIME:   0.016 TIME LEFT:  2.00D  GRAD.:     1.963 HEAT: -248.3275
 CYCLE:   226 TIME:   0.008 TIME LEFT:  2.00D  GRAD.:     6.062 HEAT: -248.3255
 CYCLE:   227 TIME:   0.008 TIME LEFT:  2.00D  GRAD.:     1.656 HEAT: -248.3306
 CYCLE:   228 TIME:   0.016 TIME LEFT:  2.00D  GRAD.:     1.181 HEAT: -248.3318
 CYCLE:   229 TIME:   0.008 TIME LEFT:  2.00D  GRAD.:     1.448 HEAT: -248.3348
 CYCLE:   230 TIME:   0.008 TIME LEFT:  2.00D  GRAD.:     2.309 HEAT: -248.3403
 CYCLE:   231 TIME:   0.016 TIME LEFT:  2.00D  GRAD.:     3.565 HEAT: -248.3440
 CYCLE:   232 TIME:   0.008 TIME LEFT:  2.00D  GRAD.:     2.033 HEAT: -248.3486
 CYCLE:   233 TIME:   0.008 TIME LEFT:  2.00D  GRAD.:     2.587 HEAT: -248.3504
 CYCLE:   234 TIME:   0.016 TIME LEFT:  2.00D  GRAD.:     2.875 HEAT: -248.3530
 CYCLE:   235 TIME:   0.008 TIME LEFT:  2.00D  GRAD.:     1.511 HEAT: -248.3545
 CYCLE:   236 TIME:   0.008 TIME LEFT:  2.00D  GRAD.:     0.920 HEAT: -248.3552

 -------------------------------------------------------------------------------
 PM7 XYZ    CHARGE=0 Singlet  BONDS AUX

 Mopac file generated by Gabedit


     HERBERTS TEST WAS SATISFIED IN BFGS                      
     SCF FIELD WAS ACHIEVED                                   


                              PM7 CALCULATION
                                                       MOPAC2016 (Version: 20.079L)
                                                       Tue Apr  7 19:16:47 2020
                                                       No. of days remaining = 347




          FINAL HEAT OF FORMATION =       -248.35518 KCAL/MOL =   -1039.11809 KJ/MOL


          TOTAL ENERGY            =      -4124.76429 EV
          ELECTRONIC ENERGY       =     -28937.21668 EV  POINT GROUP:     C1  
          CORE-CORE REPULSION     =      24812.45239 EV
          COSMO AREA              =        298.34 SQUARE ANGSTROMS
          COSMO VOLUME            =        342.21 CUBIC ANGSTROMS

          GRADIENT NORM           =          0.91973 = 0.14920 PER ATOM
          IONIZATION POTENTIAL    =         10.171718 EV
          HOMO LUMO ENERGIES (EV) =        -10.172 -0.643
          NO. OF FILLED LEVELS    =         59
          MOLECULAR WEIGHT        =        308.2872

          MOLECULAR DIMENSIONS (Angstroms)

            Atom       Atom       Distance
            H    30    H    21    13.27418
            H    33    H    37     5.72334
            O    17    H    35     4.33955


          SCF CALCULATIONS        =        237
 
          WALL-CLOCK TIME         =          2.539 SECONDS
          COMPUTATION TIME        =         14.770 SECONDS




   ATOM   CHEMICAL          X               Y               Z
  NUMBER   SYMBOL      (ANGSTROMS)     (ANGSTROMS)     (ANGSTROMS)
 
     1       C          0.20994053  *  -0.04650740  *  -0.24732574  *
     2       C         -0.24914233  *   1.11679590  *  -1.08710148  *
     3       C          0.36798110  *   2.24582864  *  -0.71790766  *
     4       C          1.31281163  *   2.01761827  *   0.44137839  *
     5       C          1.47613368  *   0.46987230  *   0.49428902  *
     6       C          2.61031771  *   2.73764331  *   0.35631721  *
     7       H          0.77953626  *   2.35840425  *   1.37823429  *
     8       C          2.73967387  *   0.02115404  *  -0.24031131  *
     9       H          1.48297030  *   0.10849402  *   1.54507113  *
    10       O          3.90656210  *   0.75786339  *   0.18182130  *
    11       C          3.78816361  *   2.08490633  *   0.29999016  *
    12       H          4.79220003  *   2.51384747  *   0.35578750  *
    13       O         -0.78984535  *  -0.27346483  *   0.77328649  *
    14       C          0.33448951  *  -1.37082782  *  -0.96049526  *
    15       C         -0.49638249  *  -2.25943734  *  -0.39820694  *
    16       C         -1.23313080  *  -1.58561852  *   0.70830307  *
    17       O         -2.06585164  *  -1.97244240  *   1.47270654  *
    18       C         -0.71644015  *  -3.68877016  *  -0.75460640  *
    19       C         -0.60868089  *  -4.59610867  *   0.46840312  *
    20       H          0.35386038  *  -4.48849034  *   0.97872629  *
    21       H         -0.71308161  *  -5.64954164  *   0.17773331  *
    22       H         -1.39848930  *  -4.37379742  *   1.20136000  *
    23       O          0.21170441  *  -4.08529689  *  -1.74200033  *
    24       H         -1.69368136  *  -3.82543362  *  -1.28641191  *
    25       C          2.53156948  *   4.19402012  *   0.42004392  *
    26       O          1.53903306  *   4.87557500  *   0.47967623  *
    27       O          3.78110995  *   4.74302474  *   0.39820948  *
    28       C          3.83292335  *   6.16323257  *   0.48287502  *
    29       H          3.34777197  *   6.60958225  *  -0.39163199  *
    30       H          4.90856652  *   6.37126557  *   0.49564028  *
    31       H          3.34772154  *   6.50501364  *   1.40382457  *
    32       O          3.03857828  *  -1.30666043  *   0.03114925  *
    33       H          3.38607016  *  -1.43219260  *   0.94361041  *
    34       H          2.70578298  *   0.09043497  *  -1.35010402  *
    35       H          1.12992592  *  -4.00495245  *  -1.41198810  *
    36       H          0.24278819  *   3.24096273  *  -1.11572276  *
    37       H         -1.00098566  *   0.98045739  *  -1.84155591  *
    38       H          1.00247759  *  -1.50843700  *  -1.79312600  *

                             CARTESIAN COORDINATES

   1    C        0.209940534    -0.046507398    -0.247325740
   2    C       -0.249142330     1.116795897    -1.087101483
   3    C        0.367981095     2.245828636    -0.717907661
   4    C        1.312811625     2.017618274     0.441378390
   5    C        1.476133678     0.469872298     0.494289018
   6    C        2.610317712     2.737643314     0.356317212
   7    H        0.779536263     2.358404250     1.378234294
   8    C        2.739673869     0.021154039    -0.240311313
   9    H        1.482970297     0.108494023     1.545071130
  10    O        3.906562102     0.757863392     0.181821298
  11    C        3.788163606     2.084906327     0.299990157
  12    H        4.792200026     2.513847466     0.355787496
  13    O       -0.789845348    -0.273464835     0.773286491
  14    C        0.334489507    -1.370827819    -0.960495262
  15    C       -0.496382492    -2.259437341    -0.398206941
  16    C       -1.233130798    -1.585618523     0.708303070
  17    O       -2.065851645    -1.972442395     1.472706537
  18    C       -0.716440150    -3.688770155    -0.754606403
  19    C       -0.608680887    -4.596108674     0.468403120
  20    H        0.353860384    -4.488490344     0.978726285
  21    H       -0.713081615    -5.649541642     0.177733306
  22    H       -1.398489298    -4.373797425     1.201359997
  23    O        0.211704405    -4.085296892    -1.742000325
  24    H       -1.693681359    -3.825433621    -1.286411908
  25    C        2.531569480     4.194020125     0.420043921
  26    O        1.539033059     4.875574999     0.479676235
  27    O        3.781109955     4.743024740     0.398209482
  28    C        3.832923354     6.163232568     0.482875016
  29    H        3.347771974     6.609582249    -0.391631992
  30    H        4.908566517     6.371265567     0.495640277
  31    H        3.347721540     6.505013639     1.403824567
  32    O        3.038578283    -1.306660429     0.031149247
  33    H        3.386070162    -1.432192602     0.943610406
  34    H        2.705782984     0.090434967    -1.350104024
  35    H        1.129925921    -4.004952453    -1.411988095
  36    H        0.242788188     3.240962730    -1.115722761
  37    H       -1.000985661     0.980457394    -1.841555913
  38    H        1.002477592    -1.508437001    -1.793126003


           Empirical Formula: C15 H16 O7  =    38 atoms



      MOLECULAR POINT GROUP   :   C1  


                  EIGENVALUES  
 -32.75278 -31.94802 -31.55263 -31.40691 -30.50130 -30.49144 -30.17061 -29.98772
 -28.13479 -27.76818 -26.53290 -26.17627 -25.11485 -24.69458 -23.47929 -22.74911
 -22.15904 -21.63392 -20.64937 -20.00492 -19.82047 -18.94282 -18.50419 -17.97143
 -17.89062 -17.00470 -16.76712 -16.49119 -16.45167 -16.33049 -16.26547 -15.86246
 -15.47432 -15.28411 -15.07031 -14.72589 -14.63233 -14.37772 -14.11049 -13.95508
 -13.80426 -13.71531 -13.65495 -13.40471 -13.34524 -13.13203 -13.04880 -12.90650
 -12.78911 -12.33009 -11.85209 -11.49184 -11.40602 -11.21371 -11.07741 -10.94203
 -10.70693 -10.53363 -10.17172  -0.64298  -0.46702   0.13293   0.82780   1.32729
   1.39255   1.45109   1.54376   1.70477   2.13874   2.45176   2.54711   2.82645
   2.93490   3.04240   3.16488   3.47855   3.64644   3.76299   3.80879   3.88326
   4.04897   4.12870   4.22615   4.29736   4.32329   4.62360   4.91328   5.01603
   5.08770   5.13643   5.17848   5.20823   5.29857   5.33526   5.37564   5.38780
   5.45202   5.55278   5.60748   5.78231   5.88747   5.90454   5.95726   6.72400


              NET ATOMIC CHARGES AND DIPOLE CONTRIBUTIONS

  ATOM NO.   TYPE          CHARGE      No. of ELECS.   s-Pop       p-Pop       
    1          C           0.232962        3.7670     1.09168     2.67536
    2          C          -0.233462        4.2335     1.09506     3.13840
    3          C          -0.077755        4.0778     1.11033     2.96742
    4          C          -0.078130        4.0781     1.05640     3.02173
    5          C          -0.248583        4.2486     1.09336     3.15523
    6          C          -0.346242        4.3462     1.05702     3.28922
    7          H           0.190445        0.8096     0.80956
    8          C           0.354251        3.6457     1.12025     2.52550
    9          H           0.181812        0.8182     0.81819
   10          O          -0.391454        6.3915     1.85967     4.53178
   11          C           0.232159        3.7678     1.12374     2.64410
   12          H           0.184374        0.8156     0.81563
   13          O          -0.401243        6.4012     1.88552     4.51573
   14          C          -0.134596        4.1346     1.11350     3.02110
   15          C          -0.198312        4.1983     1.10615     3.09216
   16          C           0.578795        3.4212     1.11856     2.30265
   17          O          -0.418328        6.4183     1.87564     4.54269
   18          C           0.198267        3.8017     1.07080     2.73093
   19          C          -0.499370        4.4994     1.06163     3.43774
   20          H           0.153122        0.8469     0.84688
   21          H           0.164938        0.8351     0.83506
   22          H           0.177953        0.8220     0.82205
   23          O          -0.548959        6.5490     1.85064     4.69832
   24          H           0.161173        0.8388     0.83883
   25          C           0.627975        3.3720     1.09939     2.27264
   26          O          -0.502449        6.5024     1.87766     4.62479
   27          O          -0.432830        6.4328     1.86679     4.56604
   28          C          -0.159116        4.1591     1.08554     3.07358
   29          H           0.139965        0.8600     0.86004
   30          H           0.143954        0.8560     0.85605
   31          H           0.142111        0.8579     0.85789
   32          O          -0.542196        6.5422     1.84250     4.69970
   33          H           0.343267        0.6567     0.65673
   34          H           0.157241        0.8428     0.84276
   35          H           0.318921        0.6811     0.68108
   36          H           0.174020        0.8260     0.82598
   37          H           0.171970        0.8280     0.82803
   38          H           0.183351        0.8166     0.81665
 DIPOLE           X         Y         Z       TOTAL
 POINT-CHG.     4.247     1.094    -1.257     4.563
 HYBRID         0.557    -0.317     0.966     1.159
 SUM            4.804     0.778    -0.291     4.875


          ATOMIC ORBITAL ELECTRON POPULATIONS

     Atom    s        px        py        pz   
    1  C   1.09168   0.85898   0.95425   0.86213
    2  C   1.09506   1.08526   0.98509   1.06805
    3  C   1.11033   0.95186   1.06139   0.95417
    4  C   1.05640   0.98127   0.94543   1.09503
    5  C   1.09336   0.99965   1.03063   1.12495
    6  C   1.05702   1.01276   1.00097   1.27549
    7  H   0.80956
    8  C   1.12025   0.79960   0.71104   1.01486
    9  H   0.81819
   10  O   1.85967   1.45280   1.27527   1.80371
   11  C   1.12374   1.03934   0.78756   0.81721
   12  H   0.81563
   13  O   1.88552   1.56878   1.39717   1.54978
   14  C   1.11350   1.00827   0.98181   1.03102
   15  C   1.10615   1.03315   1.03670   1.02231
   16  C   1.11856   0.75377   0.76402   0.78486
   17  O   1.87564   1.35981   1.72989   1.45299
   18  C   1.07080   0.95355   0.88393   0.89345
   19  C   1.06163   1.19391   1.14405   1.09979
   20  H   0.84688
   21  H   0.83506
   22  H   0.82205
   23  O   1.85064   1.31900   1.90232   1.47699
   24  H   0.83883
   25  C   1.09939   0.75472   0.84299   0.67493
   26  O   1.87766   1.44028   1.66721   1.51731
   27  O   1.86679   1.40878   1.30341   1.85385
   28  C   1.08554   1.14082   0.77666   1.15610
   29  H   0.86004
   30  H   0.85605
   31  H   0.85789
   32  O   1.84250   1.86616   1.34688   1.48666
   33  H   0.65673
   34  H   0.84276
   35  H   0.68108
   36  H   0.82598
   37  H   0.82803
   38  H   0.81665

          BONDING CONTRIBUTION OF EACH M.O.

  1.6531  1.4037  1.3052  1.2750  1.1742  1.4511  1.2330  1.1359  1.5716  1.2365
  1.6597  1.6866  1.8293  1.7289  1.7553  1.5909  1.7006  1.5175  1.6977  1.8107
  1.7327  1.7383  1.7555  1.7100  1.6747  1.7135  1.7353  1.5914  1.4167  1.4888
  1.3579  1.5718  1.4454  1.6052  1.5138  1.6019  1.7166  1.5267  1.5691  1.4332
  1.6430  1.7268  1.1701  1.6090  1.7599  1.6487  1.3665  1.7108  1.7320  1.6495
  0.9414  1.0884  0.7890  0.6887  0.7281  0.9432  1.6037  1.7873  1.3917 -2.0064
 -2.0382 -1.9848 -1.9710 -1.9380 -1.9886 -1.9882 -2.0231 -1.8677 -2.0237 -1.9172
 -1.9885 -2.0325 -1.9803 -1.9712 -1.9979 -2.0161 -1.9837 -1.9816 -1.9894 -2.0366
 -1.9766 -1.9625 -1.9541 -1.9384 -1.9282 -1.9721 -1.9321 -1.8939 -1.9034 -1.9020
 -1.9297 -1.9231 -1.9805 -1.9972 -1.9429 -1.9490 -1.9339 -1.9453 -1.9595 -1.9497
 -1.9499 -1.9513 -1.8933 -1.8998





            (VALENCIES)   BOND ORDERS

     1  C     (3.923)     2  C 0.988    14  C 0.988     5  C 0.961    13  O 0.911    17  O 0.018
 
     2  C     (3.961)     3  C 1.944     1  C 0.988    37  H 0.957     7  H 0.012    15  C 0.011
 
     3  C     (3.960)     2  C 1.944     4  C 0.999    36  H 0.955    13  O 0.019    11  C 0.011
 
     4  C     (3.965)     3  C 0.999     6  C 0.989     5  C 0.979     7  H 0.933
 
     5  C     (3.967)     4  C 0.979     8  C 0.968     1  C 0.961     9  H 0.950    32  O 0.023    10  O 0.015
                         15  C 0.013
 
     6  C     (3.918)    11  C 1.731    25  C 0.990     4  C 0.989    10  O 0.093    26  O 0.046    27  O 0.024
                         28  C 0.016
 
     7  H     (0.964)     4  C 0.933     2  C 0.012
 
     8  C     (3.812)    32  O 0.985     5  C 0.968    34  H 0.943    10  O 0.861    12  H 0.014
 
     9  H     (0.967)     5  C 0.950
 
    10  O     (2.150)    11  C 1.093     8  C 0.861     6  C 0.093    32  O 0.037     5  C 0.015    25  C 0.012
 
    11  C     (3.867)     6  C 1.731    10  O 1.093    12  H 0.937    26  O 0.027    32  O 0.015    25  C 0.013
                          3  C 0.011
 
    12  H     (0.966)    11  C 0.937     8  C 0.014
 
    13  O     (2.136)    16  C 0.965     1  C 0.911    17  O 0.144    15  C 0.039    14  C 0.021     3  C 0.019
 
    14  C     (3.961)    15  C 1.899     1  C 0.988    38  H 0.951    17  O 0.029    13  O 0.021    16  C 0.015
                         19  C 0.013    24  H 0.012
 
    15  C     (3.978)    14  C 1.899    18  C 0.979    16  C 0.946    17  O 0.054    13  O 0.039    23  O 0.019
                          5  C 0.013     2  C 0.011
 
    16  C     (3.798)    17  O 1.833    13  O 0.965    15  C 0.946    14  C 0.015
 
    17  O     (2.090)    16  C 1.833    13  O 0.144    15  C 0.054    14  C 0.029     1  C 0.018
 
    18  C     (3.898)    19  C 0.989    15  C 0.979    23  O 0.953    24  H 0.945
 
    19  C     (3.915)    18  C 0.989    20  H 0.967    21  H 0.962    22  H 0.955    23  O 0.020    14  C 0.013
 
    20  H     (0.977)    19  C 0.967
 
    21  H     (0.973)    19  C 0.962
 
    22  H     (0.968)    19  C 0.955
 
    23  O     (1.894)    18  C 0.953    35  H 0.881    19  C 0.020    15  C 0.019
 
    24  H     (0.974)    18  C 0.945    14  C 0.012
 
    25  C     (3.790)    26  O 1.759     6  C 0.990    27  O 0.987    11  C 0.013    10  O 0.012    30  H 0.010
 
    26  O     (2.007)    25  C 1.759    27  O 0.154     6  C 0.046    11  C 0.027
 
    27  O     (2.112)    25  C 0.987    28  C 0.919    26  O 0.154     6  C 0.024
 
    28  C     (3.864)    29  H 0.972    31  H 0.972    30  H 0.967    27  O 0.919     6  C 0.016
 
    29  H     (0.980)    28  C 0.972
 
    30  H     (0.979)    28  C 0.967    25  C 0.010
 
    31  H     (0.980)    28  C 0.972
 
    32  O     (1.935)     8  C 0.985    33  H 0.860    10  O 0.037     5  C 0.023    11  C 0.015
 
    33  H     (0.882)    32  O 0.860
 
    34  H     (0.975)     8  C 0.943
 
    35  H     (0.898)    23  O 0.881
 
    36  H     (0.970)     3  C 0.955
 
    37  H     (0.970)     2  C 0.957
 
    38  H     (0.966)    14  C 0.951
 

 **********************
 *                    *
 * JOB ENDED NORMALLY *
 *                    *
 **********************



 TOTAL JOB TIME:             2.55 SECONDS

 == MOPAC DONE ==
